<?xml version="1.0" encoding="UTF-8"?>

<!-- generated on 2026-01-06 18:06:36 by Eclipse SUMO GUI Version 1.24.0
<sumoConfiguration xmlns:xsi="http://www.w3.org/2001/XMLSchema-instance" xsi:noNamespaceSchemaLocation="http://sumo.dlr.de/xsd/sumoConfiguration.xsd">

    <input>
        <net-file value="D:\FYP\intersection.net.xml"/>
        <route-files value="D:\FYP\traffic.rou.xml"/>
        <additional-files value="D:\FYP\detectors.add.xml"/>
    </input>

    <time>
        <begin value="0"/>
        <end value="36000"/>
    </time>

</sumoConfiguration>
-->

<detector xmlns:xsi="http://www.w3.org/2001/XMLSchema-instance" xsi:noNamespaceSchemaLocation="http://sumo.dlr.de/xsd/det_e1_file.xsd">
    <interval begin="0.00" end="60.00" id="det_N_0" nVehContrib="2" flow="120.00" occupancy="1.78" speed="10.73" harmonicMeanSpeed="8.72" length="3.35" nVehEntered="3"/>
    <interval begin="0.00" end="60.00" id="det_N_1" nVehContrib="2" flow="120.00" occupancy="4.77" speed="5.16" harmonicMeanSpeed="5.12" length="2.20" nVehEntered="3"/>
    <interval begin="0.00" end="60.00" id="det_N_2" nVehContrib="1" flow="60.00" occupancy="2.00" speed="3.76" harmonicMeanSpeed="3.76" length="4.50" nVehEntered="1"/>
    <interval begin="0.00" end="60.00" id="det_S_0" nVehContrib="1" flow="60.00" occupancy="2.00" speed="5.92" harmonicMeanSpeed="5.92" length="2.20" nVehEntered="2"/>
    <interval begin="0.00" end="60.00" id="det_S_1" nVehContrib="1" flow="60.00" occupancy="0.41" speed="9.00" harmonicMeanSpeed="9.00" length="2.20" nVehEntered="1"/>
    <interval begin="0.00" end="60.00" id="det_S_2" nVehContrib="2" flow="120.00" occupancy="1.00" speed="8.43" harmonicMeanSpeed="8.40" length="2.20" nVehEntered="3"/>
    <interval begin="0.00" end="60.00" id="det_E_0" nVehContrib="3" flow="180.00" occupancy="2.11" speed="9.96" harmonicMeanSpeed="9.71" length="2.97" nVehEntered="4"/>
    <interval begin="0.00" end="60.00" id="det_E_1" nVehContrib="2" flow="120.00" occupancy="2.40" speed="9.15" harmonicMeanSpeed="6.62" length="4.50" nVehEntered="3"/>
    <interval begin="0.00" end="60.00" id="det_E_2" nVehContrib="1" flow="60.00" occupancy="2.56" speed="7.82" harmonicMeanSpeed="7.82" length="12.00" nVehEntered="1"/>
    <interval begin="0.00" end="60.00" id="det_W_0" nVehContrib="2" flow="120.00" occupancy="2.16" speed="9.95" harmonicMeanSpeed="8.65" length="6.25" nVehEntered="2"/>
    <interval begin="0.00" end="60.00" id="det_W_1" nVehContrib="1" flow="60.00" occupancy="0.34" speed="10.93" harmonicMeanSpeed="10.93" length="2.20" nVehEntered="1"/>
    <interval begin="0.00" end="60.00" id="det_W_2" nVehContrib="1" flow="60.00" occupancy="2.31" speed="8.66" harmonicMeanSpeed="8.66" length="12.00" nVehEntered="1"/>
    <interval begin="60.00" end="120.00" id="det_N_0" nVehContrib="7" flow="420.00" occupancy="10.38" speed="5.36" harmonicMeanSpeed="2.85" length="2.31" nVehEntered="7"/>
    <interval begin="60.00" end="120.00" id="det_N_1" nVehContrib="5" flow="300.00" occupancy="9.34" speed="4.47" harmonicMeanSpeed="2.57" length="2.82" nVehEntered="5"/>
    <interval begin="60.00" end="120.00" id="det_N_2" nVehContrib="4" flow="240.00" occupancy="71.19" speed="1.21" harmonicMeanSpeed="0.27" length="2.20" nVehEntered="5"/>
    <interval begin="60.00" end="120.00" id="det_S_0" nVehContrib="8" flow="480.00" occupancy="60.18" speed="8.81" harmonicMeanSpeed="1.00" length="4.59" nVehEntered="7"/>
    <interval begin="60.00" end="120.00" id="det_S_1" nVehContrib="8" flow="480.00" occupancy="49.49" speed="6.72" harmonicMeanSpeed="1.19" length="4.08" nVehEntered="8"/>
    <interval begin="60.00" end="120.00" id="det_S_2" nVehContrib="2" flow="120.00" occupancy="78.09" speed="0.63" harmonicMeanSpeed="0.25" length="3.35" nVehEntered="2"/>
    <interval begin="60.00" end="120.00" id="det_E_0" nVehContrib="6" flow="360.00" occupancy="13.78" speed="10.76" harmonicMeanSpeed="9.09" length="3.68" nVehEntered="7"/>
    <interval begin="60.00" end="120.00" id="det_E_1" nVehContrib="3" flow="180.00" occupancy="25.25" speed="11.01" harmonicMeanSpeed="9.84" length="7.00" nVehEntered="3"/>
    <interval begin="60.00" end="120.00" id="det_E_2" nVehContrib="2" flow="120.00" occupancy="53.70" speed="2.34" harmonicMeanSpeed="0.33" length="2.60" nVehEntered="3"/>
    <interval begin="60.00" end="120.00" id="det_W_0" nVehContrib="8" flow="480.00" occupancy="9.80" speed="11.37" harmonicMeanSpeed="10.53" length="5.76" nVehEntered="9"/>
    <interval begin="60.00" end="120.00" id="det_W_1" nVehContrib="3" flow="180.00" occupancy="37.63" speed="13.99" harmonicMeanSpeed="13.88" length="2.97" nVehEntered="4"/>
    <interval begin="60.00" end="120.00" id="det_W_2" nVehContrib="4" flow="240.00" occupancy="27.67" speed="8.93" harmonicMeanSpeed="8.58" length="2.78" nVehEntered="5"/>
    <interval begin="120.00" end="180.00" id="det_N_0" nVehContrib="1" flow="60.00" occupancy="59.21" speed="6.11" harmonicMeanSpeed="6.11" length="2.20" nVehEntered="2"/>
    <interval begin="120.00" end="180.00" id="det_N_1" nVehContrib="2" flow="120.00" occupancy="50.62" speed="4.89" harmonicMeanSpeed="4.63" length="3.35" nVehEntered="3"/>
    <interval begin="120.00" end="180.00" id="det_N_2" nVehContrib="0" flow="0.00" occupancy="100.00" speed="-1.00" harmonicMeanSpeed="-1.00" length="-1.00" nVehEntered="0"/>
    <interval begin="120.00" end="180.00" id="det_S_0" nVehContrib="3" flow="180.00" occupancy="2.97" speed="6.84" harmonicMeanSpeed="4.59" length="2.97" nVehEntered="3"/>
    <interval begin="120.00" end="180.00" id="det_S_1" nVehContrib="2" flow="120.00" occupancy="49.95" speed="9.85" harmonicMeanSpeed="8.36" length="5.50" nVehEntered="4"/>
    <interval begin="120.00" end="180.00" id="det_S_2" nVehContrib="3" flow="180.00" occupancy="51.21" speed="6.70" harmonicMeanSpeed="0.92" length="3.73" nVehEntered="3"/>
    <interval begin="120.00" end="180.00" id="det_E_0" nVehContrib="7" flow="420.00" occupancy="36.14" speed="8.16" harmonicMeanSpeed="0.57" length="2.76" nVehEntered="6"/>
    <interval begin="120.00" end="180.00" id="det_E_1" nVehContrib="4" flow="240.00" occupancy="37.97" speed="3.99" harmonicMeanSpeed="1.17" length="5.80" nVehEntered="3"/>
    <interval begin="120.00" end="180.00" id="det_E_2" nVehContrib="7" flow="420.00" occupancy="65.53" speed="1.47" harmonicMeanSpeed="0.27" length="2.20" nVehEntered="6"/>
    <interval begin="120.00" end="180.00" id="det_W_0" nVehContrib="10" flow="600.00" occupancy="38.20" speed="9.19" harmonicMeanSpeed="1.71" length="3.88" nVehEntered="9"/>
    <interval begin="120.00" end="180.00" id="det_W_1" nVehContrib="5" flow="300.00" occupancy="34.14" speed="4.28" harmonicMeanSpeed="1.18" length="4.64" nVehEntered="4"/>
    <interval begin="120.00" end="180.00" id="det_W_2" nVehContrib="3" flow="180.00" occupancy="87.01" speed="1.22" harmonicMeanSpeed="0.26" length="5.67" nVehEntered="3"/>
    <interval begin="180.00" end="240.00" id="det_N_0" nVehContrib="8" flow="480.00" occupancy="33.06" speed="8.09" harmonicMeanSpeed="1.89" length="5.33" nVehEntered="8"/>
    <interval begin="180.00" end="240.00" id="det_N_1" nVehContrib="15" flow="900.00" occupancy="14.39" speed="9.18" harmonicMeanSpeed="0.91" length="2.92" nVehEntered="14"/>
    <interval begin="180.00" end="240.00" id="det_N_2" nVehContrib="3" flow="180.00" occupancy="89.71" speed="0.55" harmonicMeanSpeed="0.12" length="5.47" nVehEntered="3"/>
    <interval begin="180.00" end="240.00" id="det_S_0" nVehContrib="11" flow="660.00" occupancy="9.62" speed="8.90" harmonicMeanSpeed="6.89" length="4.03" nVehEntered="11"/>
    <interval begin="180.00" end="240.00" id="det_S_1" nVehContrib="8" flow="480.00" occupancy="25.18" speed="5.33" harmonicMeanSpeed="1.04" length="4.29" nVehEntered="8"/>
    <interval begin="180.00" end="240.00" id="det_S_2" nVehContrib="1" flow="60.00" occupancy="90.72" speed="4.32" harmonicMeanSpeed="4.32" length="8.00" nVehEntered="2"/>
    <interval begin="180.00" end="240.00" id="det_E_0" nVehContrib="7" flow="420.00" occupancy="56.67" speed="3.67" harmonicMeanSpeed="0.46" length="2.43" nVehEntered="7"/>
    <interval begin="180.00" end="240.00" id="det_E_1" nVehContrib="7" flow="420.00" occupancy="67.23" speed="5.71" harmonicMeanSpeed="1.25" length="3.91" nVehEntered="7"/>
    <interval begin="180.00" end="240.00" id="det_E_2" nVehContrib="0" flow="0.00" occupancy="89.26" speed="-1.00" harmonicMeanSpeed="-1.00" length="-1.00" nVehEntered="1"/>
    <interval begin="180.00" end="240.00" id="det_W_0" nVehContrib="5" flow="300.00" occupancy="62.02" speed="4.06" harmonicMeanSpeed="1.01" length="4.98" nVehEntered="6"/>
    <interval begin="180.00" end="240.00" id="det_W_1" nVehContrib="6" flow="360.00" occupancy="63.81" speed="4.81" harmonicMeanSpeed="0.68" length="3.73" nVehEntered="6"/>
    <interval begin="180.00" end="240.00" id="det_W_2" nVehContrib="1" flow="60.00" occupancy="94.79" speed="0.06" harmonicMeanSpeed="0.06" length="3.00" nVehEntered="1"/>
    <interval begin="240.00" end="300.00" id="det_N_0" nVehContrib="6" flow="360.00" occupancy="58.64" speed="7.04" harmonicMeanSpeed="1.38" length="5.25" nVehEntered="5"/>
    <interval begin="240.00" end="300.00" id="det_N_1" nVehContrib="4" flow="240.00" occupancy="51.45" speed="3.87" harmonicMeanSpeed="0.58" length="4.80" nVehEntered="4"/>
    <interval begin="240.00" end="300.00" id="det_N_2" nVehContrib="2" flow="120.00" occupancy="59.58" speed="0.54" harmonicMeanSpeed="0.13" length="2.60" nVehEntered="1"/>
    <interval begin="240.00" end="300.00" id="det_S_0" nVehContrib="8" flow="480.00" occupancy="54.36" speed="7.79" harmonicMeanSpeed="0.72" length="2.98" nVehEntered="8"/>
    <interval begin="240.00" end="300.00" id="det_S_1" nVehContrib="4" flow="240.00" occupancy="57.01" speed="3.25" harmonicMeanSpeed="0.43" length="4.12" nVehEntered="3"/>
    <interval begin="240.00" end="300.00" id="det_S_2" nVehContrib="2" flow="120.00" occupancy="91.03" speed="0.14" harmonicMeanSpeed="0.06" length="3.35" nVehEntered="2"/>
    <interval begin="240.00" end="300.00" id="det_E_0" nVehContrib="4" flow="240.00" occupancy="32.45" speed="11.55" harmonicMeanSpeed="9.99" length="2.40" nVehEntered="5"/>
    <interval begin="240.00" end="300.00" id="det_E_1" nVehContrib="3" flow="180.00" occupancy="3.16" speed="5.07" harmonicMeanSpeed="4.80" length="3.23" nVehEntered="3"/>
    <interval begin="240.00" end="300.00" id="det_E_2" nVehContrib="2" flow="120.00" occupancy="44.89" speed="1.14" harmonicMeanSpeed="0.29" length="10.00" nVehEntered="1"/>
    <interval begin="240.00" end="300.00" id="det_W_0" nVehContrib="5" flow="300.00" occupancy="40.66" speed="9.77" harmonicMeanSpeed="9.24" length="4.14" nVehEntered="6"/>
    <interval begin="240.00" end="300.00" id="det_W_1" nVehContrib="6" flow="360.00" occupancy="23.27" speed="9.52" harmonicMeanSpeed="8.56" length="2.58" nVehEntered="7"/>
    <interval begin="240.00" end="300.00" id="det_W_2" nVehContrib="2" flow="120.00" occupancy="86.35" speed="0.86" harmonicMeanSpeed="0.44" length="6.25" nVehEntered="2"/>
    <interval begin="300.00" end="360.00" id="det_N_0" nVehContrib="3" flow="180.00" occupancy="34.40" speed="7.16" harmonicMeanSpeed="5.94" length="2.97" nVehEntered="4"/>
    <interval begin="300.00" end="360.00" id="det_N_1" nVehContrib="1" flow="60.00" occupancy="49.49" speed="9.48" harmonicMeanSpeed="9.48" length="2.20" nVehEntered="2"/>
    <interval begin="300.00" end="360.00" id="det_N_2" nVehContrib="0" flow="0.00" occupancy="0.00" speed="-1.00" harmonicMeanSpeed="-1.00" length="-1.00" nVehEntered="0"/>
    <interval begin="300.00" end="360.00" id="det_S_0" nVehContrib="3" flow="180.00" occupancy="57.56" speed="11.28" harmonicMeanSpeed="10.10" length="3.73" nVehEntered="4"/>
    <interval begin="300.00" end="360.00" id="det_S_1" nVehContrib="1" flow="60.00" occupancy="54.76" speed="6.58" harmonicMeanSpeed="6.58" length="4.50" nVehEntered="2"/>
    <interval begin="300.00" end="360.00" id="det_S_2" nVehContrib="2" flow="120.00" occupancy="85.86" speed="1.45" harmonicMeanSpeed="0.55" length="3.35" nVehEntered="2"/>
    <interval begin="300.00" end="360.00" id="det_E_0" nVehContrib="7" flow="420.00" occupancy="37.22" speed="7.33" harmonicMeanSpeed="1.69" length="3.60" nVehEntered="6"/>
    <interval begin="300.00" end="360.00" id="det_E_1" nVehContrib="6" flow="360.00" occupancy="8.89" speed="5.77" harmonicMeanSpeed="3.65" length="3.23" nVehEntered="6"/>
    <interval begin="300.00" end="360.00" id="det_E_2" nVehContrib="1" flow="60.00" occupancy="68.61" speed="1.74" harmonicMeanSpeed="1.74" length="3.00" nVehEntered="2"/>
    <interval begin="300.00" end="360.00" id="det_W_0" nVehContrib="11" flow="660.00" occupancy="43.38" speed="8.04" harmonicMeanSpeed="1.09" length="5.82" nVehEntered="10"/>
    <interval begin="300.00" end="360.00" id="det_W_1" nVehContrib="10" flow="600.00" occupancy="38.47" speed="7.76" harmonicMeanSpeed="1.21" length="3.28" nVehEntered="9"/>
    <interval begin="300.00" end="360.00" id="det_W_2" nVehContrib="5" flow="300.00" occupancy="41.01" speed="2.64" harmonicMeanSpeed="0.41" length="4.78" nVehEntered="4"/>
    <interval begin="360.00" end="420.00" id="det_N_0" nVehContrib="7" flow="420.00" occupancy="11.30" speed="9.58" harmonicMeanSpeed="1.22" length="4.51" nVehEntered="7"/>
    <interval begin="360.00" end="420.00" id="det_N_1" nVehContrib="5" flow="300.00" occupancy="7.86" speed="5.53" harmonicMeanSpeed="0.66" length="4.50" nVehEntered="4"/>
    <interval begin="360.00" end="420.00" id="det_N_2" nVehContrib="1" flow="60.00" occupancy="72.81" speed="0.18" harmonicMeanSpeed="0.18" length="8.00" nVehEntered="1"/>
    <interval begin="360.00" end="420.00" id="det_S_0" nVehContrib="12" flow="720.00" occupancy="12.05" speed="7.02" harmonicMeanSpeed="1.24" length="3.04" nVehEntered="11"/>
    <interval begin="360.00" end="420.00" id="det_S_1" nVehContrib="8" flow="480.00" occupancy="28.18" speed="6.64" harmonicMeanSpeed="0.91" length="3.35" nVehEntered="8"/>
    <interval begin="360.00" end="420.00" id="det_S_2" nVehContrib="5" flow="300.00" occupancy="55.73" speed="1.93" harmonicMeanSpeed="0.17" length="2.98" nVehEntered="5"/>
    <interval begin="360.00" end="420.00" id="det_E_0" nVehContrib="6" flow="360.00" occupancy="62.27" speed="4.16" harmonicMeanSpeed="0.38" length="4.23" nVehEntered="6"/>
    <interval begin="360.00" end="420.00" id="det_E_1" nVehContrib="7" flow="420.00" occupancy="10.61" speed="3.78" harmonicMeanSpeed="2.74" length="2.53" nVehEntered="8"/>
    <interval begin="360.00" end="420.00" id="det_E_2" nVehContrib="2" flow="120.00" occupancy="90.76" speed="0.05" harmonicMeanSpeed="0.05" length="2.20" nVehEntered="2"/>
    <interval begin="360.00" end="420.00" id="det_W_0" nVehContrib="4" flow="240.00" occupancy="67.84" speed="4.18" harmonicMeanSpeed="1.03" length="4.65" nVehEntered="4"/>
    <interval begin="360.00" end="420.00" id="det_W_1" nVehContrib="6" flow="360.00" occupancy="74.20" speed="3.75" harmonicMeanSpeed="0.58" length="3.10" nVehEntered="6"/>
    <interval begin="360.00" end="420.00" id="det_W_2" nVehContrib="2" flow="120.00" occupancy="89.74" speed="0.39" harmonicMeanSpeed="0.09" length="2.20" nVehEntered="3"/>
    <interval begin="420.00" end="480.00" id="det_N_0" nVehContrib="5" flow="300.00" occupancy="51.18" speed="5.87" harmonicMeanSpeed="0.53" length="6.74" nVehEntered="6"/>
    <interval begin="420.00" end="480.00" id="det_N_1" nVehContrib="6" flow="360.00" occupancy="31.12" speed="5.47" harmonicMeanSpeed="0.75" length="3.23" nVehEntered="6"/>
    <interval begin="420.00" end="480.00" id="det_N_2" nVehContrib="1" flow="60.00" occupancy="44.53" speed="0.99" harmonicMeanSpeed="0.99" length="2.20" nVehEntered="2"/>
    <interval begin="420.00" end="480.00" id="det_S_0" nVehContrib="6" flow="360.00" occupancy="61.40" speed="7.71" harmonicMeanSpeed="0.39" length="4.73" nVehEntered="6"/>
    <interval begin="420.00" end="480.00" id="det_S_1" nVehContrib="6" flow="360.00" occupancy="59.43" speed="4.72" harmonicMeanSpeed="1.30" length="5.12" nVehEntered="5"/>
    <interval begin="420.00" end="480.00" id="det_S_2" nVehContrib="4" flow="240.00" occupancy="76.05" speed="3.06" harmonicMeanSpeed="0.24" length="3.35" nVehEntered="4"/>
    <interval begin="420.00" end="480.00" id="det_E_0" nVehContrib="7" flow="420.00" occupancy="2.68" speed="10.21" harmonicMeanSpeed="9.58" length="2.20" nVehEntered="7"/>
    <interval begin="420.00" end="480.00" id="det_E_1" nVehContrib="5" flow="300.00" occupancy="3.94" speed="9.40" harmonicMeanSpeed="7.63" length="4.74" nVehEntered="4"/>
    <interval begin="420.00" end="480.00" id="det_E_2" nVehContrib="0" flow="0.00" occupancy="100.00" speed="-1.00" harmonicMeanSpeed="-1.00" length="-1.00" nVehEntered="0"/>
    <interval begin="420.00" end="480.00" id="det_W_0" nVehContrib="6" flow="360.00" occupancy="53.91" speed="11.42" harmonicMeanSpeed="10.90" length="3.35" nVehEntered="7"/>
    <interval begin="420.00" end="480.00" id="det_W_1" nVehContrib="0" flow="0.00" occupancy="75.20" speed="-1.00" harmonicMeanSpeed="-1.00" length="-1.00" nVehEntered="1"/>
    <interval begin="420.00" end="480.00" id="det_W_2" nVehContrib="1" flow="60.00" occupancy="51.36" speed="0.06" harmonicMeanSpeed="0.06" length="2.20" nVehEntered="0"/>
    <interval begin="480.00" end="540.00" id="det_N_0" nVehContrib="3" flow="180.00" occupancy="3.50" speed="11.12" harmonicMeanSpeed="9.22" length="5.67" nVehEntered="3"/>
    <interval begin="480.00" end="540.00" id="det_N_1" nVehContrib="1" flow="60.00" occupancy="44.88" speed="4.36" harmonicMeanSpeed="4.36" length="2.20" nVehEntered="2"/>
    <interval begin="480.00" end="540.00" id="det_N_2" nVehContrib="4" flow="240.00" occupancy="79.66" speed="1.48" harmonicMeanSpeed="0.32" length="2.97" nVehEntered="4"/>
    <interval begin="480.00" end="540.00" id="det_S_0" nVehContrib="5" flow="300.00" occupancy="41.31" speed="7.92" harmonicMeanSpeed="6.42" length="2.36" nVehEntered="7"/>
    <interval begin="480.00" end="540.00" id="det_S_1" nVehContrib="3" flow="180.00" occupancy="5.40" speed="4.89" harmonicMeanSpeed="2.04" length="2.20" nVehEntered="3"/>
    <interval begin="480.00" end="540.00" id="det_S_2" nVehContrib="3" flow="180.00" occupancy="86.69" speed="0.92" harmonicMeanSpeed="0.83" length="2.47" nVehEntered="3"/>
    <interval begin="480.00" end="540.00" id="det_E_0" nVehContrib="6" flow="360.00" occupancy="6.12" speed="11.20" harmonicMeanSpeed="4.87" length="4.35" nVehEntered="6"/>
    <interval begin="480.00" end="540.00" id="det_E_1" nVehContrib="4" flow="240.00" occupancy="3.69" speed="6.03" harmonicMeanSpeed="4.86" length="2.98" nVehEntered="4"/>
    <interval begin="480.00" end="540.00" id="det_E_2" nVehContrib="2" flow="120.00" occupancy="36.59" speed="0.67" harmonicMeanSpeed="0.17" length="6.25" nVehEntered="1"/>
    <interval begin="480.00" end="540.00" id="det_W_0" nVehContrib="14" flow="840.00" occupancy="41.31" speed="7.51" harmonicMeanSpeed="2.32" length="4.42" nVehEntered="13"/>
    <interval begin="480.00" end="540.00" id="det_W_1" nVehContrib="6" flow="360.00" occupancy="33.18" speed="6.69" harmonicMeanSpeed="0.28" length="3.48" nVehEntered="5"/>
    <interval begin="480.00" end="540.00" id="det_W_2" nVehContrib="2" flow="120.00" occupancy="14.61" speed="1.20" harmonicMeanSpeed="1.19" length="5.10" nVehEntered="2"/>
    <interval begin="540.00" end="600.00" id="det_N_0" nVehContrib="17" flow="1020.00" occupancy="34.89" speed="6.01" harmonicMeanSpeed="3.53" length="3.65" nVehEntered="18"/>
    <interval begin="540.00" end="600.00" id="det_N_1" nVehContrib="3" flow="180.00" occupancy="52.92" speed="2.62" harmonicMeanSpeed="0.21" length="2.97" nVehEntered="4"/>
    <interval begin="540.00" end="600.00" id="det_N_2" nVehContrib="3" flow="180.00" occupancy="29.94" speed="0.40" harmonicMeanSpeed="0.12" length="2.47" nVehEntered="2"/>
    <interval begin="540.00" end="600.00" id="det_S_0" nVehContrib="9" flow="540.00" occupancy="24.39" speed="8.11" harmonicMeanSpeed="1.21" length="4.04" nVehEntered="9"/>
    <interval begin="540.00" end="600.00" id="det_S_1" nVehContrib="8" flow="480.00" occupancy="11.57" speed="7.74" harmonicMeanSpeed="4.29" length="3.45" nVehEntered="9"/>
    <interval begin="540.00" end="600.00" id="det_S_2" nVehContrib="1" flow="60.00" occupancy="94.54" speed="0.05" harmonicMeanSpeed="0.05" length="2.20" nVehEntered="1"/>
    <interval begin="540.00" end="600.00" id="det_E_0" nVehContrib="6" flow="360.00" occupancy="66.64" speed="3.92" harmonicMeanSpeed="0.66" length="4.32" nVehEntered="6"/>
    <interval begin="540.00" end="600.00" id="det_E_1" nVehContrib="1" flow="60.00" occupancy="57.66" speed="2.55" harmonicMeanSpeed="2.55" length="3.00" nVehEntered="2"/>
    <interval begin="540.00" end="600.00" id="det_E_2" nVehContrib="3" flow="180.00" occupancy="74.80" speed="1.30" harmonicMeanSpeed="0.15" length="2.20" nVehEntered="3"/>
    <interval begin="540.00" end="600.00" id="det_W_0" nVehContrib="4" flow="240.00" occupancy="82.07" speed="2.67" harmonicMeanSpeed="0.80" length="5.62" nVehEntered="4"/>
    <interval begin="540.00" end="600.00" id="det_W_1" nVehContrib="6" flow="360.00" occupancy="58.02" speed="3.03" harmonicMeanSpeed="0.39" length="2.72" nVehEntered="6"/>
    <interval begin="540.00" end="600.00" id="det_W_2" nVehContrib="1" flow="60.00" occupancy="17.17" speed="1.13" harmonicMeanSpeed="1.13" length="2.20" nVehEntered="2"/>
    <interval begin="600.00" end="660.00" id="det_N_0" nVehContrib="9" flow="540.00" occupancy="60.46" speed="5.85" harmonicMeanSpeed="0.47" length="2.20" nVehEntered="8"/>
    <interval begin="600.00" end="660.00" id="det_N_1" nVehContrib="6" flow="360.00" occupancy="61.96" speed="4.47" harmonicMeanSpeed="0.55" length="4.48" nVehEntered="5"/>
    <interval begin="600.00" end="660.00" id="det_N_2" nVehContrib="1" flow="60.00" occupancy="5.16" speed="0.97" harmonicMeanSpeed="0.97" length="3.00" nVehEntered="1"/>
    <interval begin="600.00" end="660.00" id="det_S_0" nVehContrib="9" flow="540.00" occupancy="61.22" speed="6.06" harmonicMeanSpeed="0.90" length="2.97" nVehEntered="8"/>
    <interval begin="600.00" end="660.00" id="det_S_1" nVehContrib="6" flow="360.00" occupancy="59.40" speed="4.22" harmonicMeanSpeed="0.48" length="3.10" nVehEntered="5"/>
    <interval begin="600.00" end="660.00" id="det_S_2" nVehContrib="2" flow="120.00" occupancy="82.22" speed="1.91" harmonicMeanSpeed="0.11" length="3.35" nVehEntered="2"/>
    <interval begin="600.00" end="660.00" id="det_E_0" nVehContrib="13" flow="780.00" occupancy="13.04" speed="6.54" harmonicMeanSpeed="4.27" length="2.68" nVehEntered="13"/>
    <interval begin="600.00" end="660.00" id="det_E_1" nVehContrib="0" flow="0.00" occupancy="100.00" speed="-1.00" harmonicMeanSpeed="-1.00" length="-1.00" nVehEntered="0"/>
    <interval begin="600.00" end="660.00" id="det_E_2" nVehContrib="2" flow="120.00" occupancy="9.24" speed="1.29" harmonicMeanSpeed="1.02" length="3.35" nVehEntered="2"/>
    <interval begin="600.00" end="660.00" id="det_W_0" nVehContrib="7" flow="420.00" occupancy="16.69" speed="8.68" harmonicMeanSpeed="6.80" length="3.19" nVehEntered="9"/>
    <interval begin="600.00" end="660.00" id="det_W_1" nVehContrib="3" flow="180.00" occupancy="22.58" speed="5.22" harmonicMeanSpeed="3.45" length="3.73" nVehEntered="4"/>
    <interval begin="600.00" end="660.00" id="det_W_2" nVehContrib="0" flow="0.00" occupancy="100.00" speed="-1.00" harmonicMeanSpeed="-1.00" length="-1.00" nVehEntered="0"/>
    <interval begin="660.00" end="720.00" id="det_N_0" nVehContrib="2" flow="120.00" occupancy="3.16" speed="7.88" harmonicMeanSpeed="6.61" length="5.10" nVehEntered="2"/>
    <interval begin="660.00" end="720.00" id="det_N_1" nVehContrib="2" flow="120.00" occupancy="54.35" speed="10.75" harmonicMeanSpeed="10.17" length="5.10" nVehEntered="3"/>
    <interval begin="660.00" end="720.00" id="det_N_2" nVehContrib="1" flow="60.00" occupancy="79.97" speed="1.86" harmonicMeanSpeed="1.86" length="2.20" nVehEntered="2"/>
    <interval begin="660.00" end="720.00" id="det_S_0" nVehContrib="2" flow="120.00" occupancy="45.41" speed="10.49" harmonicMeanSpeed="9.41" length="4.50" nVehEntered="3"/>
    <interval begin="660.00" end="720.00" id="det_S_1" nVehContrib="2" flow="120.00" occupancy="65.82" speed="10.01" harmonicMeanSpeed="9.06" length="2.20" nVehEntered="3"/>
    <interval begin="660.00" end="720.00" id="det_S_2" nVehContrib="3" flow="180.00" occupancy="83.76" speed="2.28" harmonicMeanSpeed="0.55" length="2.97" nVehEntered="3"/>
    <interval begin="660.00" end="720.00" id="det_E_0" nVehContrib="14" flow="840.00" occupancy="21.60" speed="6.41" harmonicMeanSpeed="4.34" length="3.67" nVehEntered="14"/>
    <interval begin="660.00" end="720.00" id="det_E_1" nVehContrib="3" flow="180.00" occupancy="78.17" speed="1.64" harmonicMeanSpeed="1.46" length="2.20" nVehEntered="5"/>
    <interval begin="660.00" end="720.00" id="det_E_2" nVehContrib="0" flow="0.00" occupancy="71.67" speed="-1.00" harmonicMeanSpeed="-1.00" length="-1.00" nVehEntered="1"/>
    <interval begin="660.00" end="720.00" id="det_W_0" nVehContrib="15" flow="900.00" occupancy="51.26" speed="9.53" harmonicMeanSpeed="3.76" length="5.11" nVehEntered="15"/>
    <interval begin="660.00" end="720.00" id="det_W_1" nVehContrib="2" flow="120.00" occupancy="29.08" speed="1.73" harmonicMeanSpeed="0.32" length="4.50" nVehEntered="1"/>
    <interval begin="660.00" end="720.00" id="det_W_2" nVehContrib="0" flow="0.00" occupancy="100.00" speed="-1.00" harmonicMeanSpeed="-1.00" length="-1.00" nVehEntered="0"/>
    <interval begin="720.00" end="780.00" id="det_N_0" nVehContrib="9" flow="540.00" occupancy="32.27" speed="9.07" harmonicMeanSpeed="5.14" length="4.89" nVehEntered="10"/>
    <interval begin="720.00" end="780.00" id="det_N_1" nVehContrib="5" flow="300.00" occupancy="11.87" speed="2.00" harmonicMeanSpeed="0.51" length="3.12" nVehEntered="4"/>
    <interval begin="720.00" end="780.00" id="det_N_2" nVehContrib="2" flow="120.00" occupancy="62.95" speed="0.14" harmonicMeanSpeed="0.09" length="3.75" nVehEntered="2"/>
    <interval begin="720.00" end="780.00" id="det_S_0" nVehContrib="12" flow="720.00" occupancy="10.54" speed="8.46" harmonicMeanSpeed="1.55" length="2.97" nVehEntered="11"/>
    <interval begin="720.00" end="780.00" id="det_S_1" nVehContrib="9" flow="540.00" occupancy="14.77" speed="7.09" harmonicMeanSpeed="1.39" length="3.96" nVehEntered="9"/>
    <interval begin="720.00" end="780.00" id="det_S_2" nVehContrib="0" flow="0.00" occupancy="100.00" speed="-1.00" harmonicMeanSpeed="-1.00" length="-1.00" nVehEntered="0"/>
    <interval begin="720.00" end="780.00" id="det_E_0" nVehContrib="7" flow="420.00" occupancy="11.38" speed="4.62" harmonicMeanSpeed="2.75" length="3.19" nVehEntered="7"/>
    <interval begin="720.00" end="780.00" id="det_E_1" nVehContrib="6" flow="360.00" occupancy="68.26" speed="3.63" harmonicMeanSpeed="0.33" length="2.60" nVehEntered="6"/>
    <interval begin="720.00" end="780.00" id="det_E_2" nVehContrib="1" flow="60.00" occupancy="90.12" speed="0.02" harmonicMeanSpeed="0.02" length="2.20" nVehEntered="0"/>
    <interval begin="720.00" end="780.00" id="det_W_0" nVehContrib="7" flow="420.00" occupancy="76.49" speed="4.83" harmonicMeanSpeed="0.46" length="3.30" nVehEntered="7"/>
    <interval begin="720.00" end="780.00" id="det_W_1" nVehContrib="1" flow="60.00" occupancy="20.39" speed="0.18" harmonicMeanSpeed="0.18" length="2.20" nVehEntered="1"/>
    <interval begin="720.00" end="780.00" id="det_W_2" nVehContrib="1" flow="60.00" occupancy="97.03" speed="0.07" harmonicMeanSpeed="0.07" length="12.00" nVehEntered="1"/>
    <interval begin="780.00" end="840.00" id="det_N_0" nVehContrib="11" flow="660.00" occupancy="62.23" speed="7.72" harmonicMeanSpeed="0.95" length="4.14" nVehEntered="10"/>
    <interval begin="780.00" end="840.00" id="det_N_1" nVehContrib="0" flow="0.00" occupancy="42.79" speed="-1.00" harmonicMeanSpeed="-1.00" length="-1.00" nVehEntered="1"/>
    <interval begin="780.00" end="840.00" id="det_N_2" nVehContrib="2" flow="120.00" occupancy="92.62" speed="0.15" harmonicMeanSpeed="0.13" length="4.50" nVehEntered="1"/>
    <interval begin="780.00" end="840.00" id="det_S_0" nVehContrib="8" flow="480.00" occupancy="13.01" speed="6.17" harmonicMeanSpeed="3.83" length="3.89" nVehEntered="8"/>
    <interval begin="780.00" end="840.00" id="det_S_1" nVehContrib="7" flow="420.00" occupancy="62.85" speed="5.22" harmonicMeanSpeed="0.78" length="3.19" nVehEntered="6"/>
    <interval begin="780.00" end="840.00" id="det_S_2" nVehContrib="1" flow="60.00" occupancy="95.48" speed="0.09" harmonicMeanSpeed="0.09" length="12.00" nVehEntered="1"/>
    <interval begin="780.00" end="840.00" id="det_E_0" nVehContrib="8" flow="480.00" occupancy="20.15" speed="10.57" harmonicMeanSpeed="9.44" length="4.90" nVehEntered="9"/>
    <interval begin="780.00" end="840.00" id="det_E_1" nVehContrib="3" flow="180.00" occupancy="4.52" speed="7.51" harmonicMeanSpeed="6.24" length="4.90" nVehEntered="3"/>
    <interval begin="780.00" end="840.00" id="det_E_2" nVehContrib="0" flow="0.00" occupancy="53.72" speed="-1.00" harmonicMeanSpeed="-1.00" length="-1.00" nVehEntered="1"/>
    <interval begin="780.00" end="840.00" id="det_W_0" nVehContrib="11" flow="660.00" occupancy="61.52" speed="5.56" harmonicMeanSpeed="3.71" length="3.30" nVehEntered="12"/>
    <interval begin="780.00" end="840.00" id="det_W_1" nVehContrib="1" flow="60.00" occupancy="33.06" speed="0.25" harmonicMeanSpeed="0.25" length="2.20" nVehEntered="3"/>
    <interval begin="780.00" end="840.00" id="det_W_2" nVehContrib="2" flow="120.00" occupancy="91.69" speed="1.03" harmonicMeanSpeed="0.10" length="2.60" nVehEntered="2"/>
    <interval begin="840.00" end="900.00" id="det_N_0" nVehContrib="6" flow="360.00" occupancy="6.49" speed="7.96" harmonicMeanSpeed="7.21" length="4.32" nVehEntered="6"/>